 vasp.6.5.1 10Mar25 (build Apr 10 2025 20:17:59) complex                         
 executed on             LinuxGNU date 2025.07.03  14:44:17
 running   32 mpi-ranks, with    1 threads/rank, on    1 nodes
 distrk:  each k-point on   32 cores,    1 groups
 distr:  one band on NCORE=   4 cores,    8 groups


--------------------------------------------------------------------------------------------------------


 INCAR:
   PREC = Accurate
   ENCUT = 500
   EDIFF = 1E-8
   NELM = 400
   NELMIN = 4
   KPAR = 1
   NCORE = 4
   LWAVE = .TRUE.
   NEDOS = 1001
   LORBIT = 10
   ISMEAR = 1

 POTCAR:    PAW_PBE Al 04Jan2001                  
 POTCAR:    PAW_PBE Ce 23Dec2003                  
 POTCAR:    PAW_PBE Co 02Aug2007                  
 POTCAR:    PAW_PBE Al 04Jan2001                  
   SHA256 =  17880443556af62b473fe41b62a467bd001ad55d2cabe504a3f22e34d4e9db96 Al/POTCAR             
   COPYR  = (c) Copyright 04Jan2001 Georg Kresse                                                    
   COPYR  = This file is part of the software VASP. Any use, copying, and all other rights are regul
   COPYR  = If you do not have a valid VASP license, you may not use, copy or distribute this file. 
   VRHFIN =Al: s2p1                                                                                 
   LEXCH  = PE                                                                                      
   EATOM  =    53.5387 eV,    3.9350 Ry                                                             
                                                                                                    
   TITEL  = PAW_PBE Al 04Jan2001                                                                    
   LULTRA =        F    use ultrasoft PP ?                                                          
   IUNSCR =        1    unscreen: 0-lin 1-nonlin 2-no                                               
   RPACOR =    1.500    partial core radius                                                         
   POMASS =   26.981; ZVAL   =    3.000    mass and valenz                                          
   RCORE  =    1.900    outmost cutoff radius                                                       
   RWIGS  =    2.650; RWIGS  =    1.402    wigner-seitz radius (au A)                               
   ENMAX  =  240.300; ENMIN  =  180.225 eV                                                          
   ICORE  =        2    local potential                                                             
   LCOR   =        T    correct aug charges                                                         
   LPAW   =        T    paw PP                                                                      
   EAUG   =  291.052                                                                                
   DEXC   =    0.000                                                                                
   RMAX   =    1.939    core radius for proj-oper                                                   
   RAUG   =    1.300    factor for augmentation sphere                                              
   RDEP   =    1.966    radius for radial grids                                                     
   RDEPT  =    1.856    core radius for aug-charge                                                  
                                                                                                    
   Atomic configuration                                                                             
    6 entries                                                                                       
     n  l   j            E        occ.                                                              
     1  0  0.50     -1511.1048   2.0000                                                             
     2  0  0.50      -108.1629   2.0000                                                             
     2  1  1.50       -69.6402   6.0000                                                             
     3  0  0.50        -7.7528   2.0000                                                             
     3  1  1.50        -2.7121   1.0000                                                             
     3  2  2.50        -2.7212   0.0000                                                             
   Description                                                                                      
     l       E           TYP  RCUT    TYP  RCUT                                                     
     0     -7.7528455     23  1.900                                                                 
     0     -3.3096929     23  1.900                                                                 
     1     -2.7120682     23  1.900                                                                 
     1     13.6058260     23  1.900                                                                 
     2     -2.7211652      7  1.900                                                                 
  local pseudopotential read in
  partial core-charges read in
  partial kinetic energy density read in
  atomic valenz-charges read in
  non local Contribution for L=           0  read in
    real space projection operators read in
  non local Contribution for L=           0  read in
    real space projection operators read in
  non local Contribution for L=           1  read in
    real space projection operators read in
  non local Contribution for L=           1  read in
    real space projection operators read in
    PAW grid and wavefunctions read in

   number of l-projection  operators is LMAX  =           4
   number of lm-projection operators is LMMAX =           8

 POTCAR:    PAW_PBE Ce 23Dec2003                  
   SHA256 =  00bd3101dba980d69718c826e9aff48526de61f93249f80fb0d1cde9afca69b7 Ce/POTCAR             
   COPYR  = (c) Copyright 23Dec2003 Georg Kresse                                                    
   COPYR  = This file is part of the software VASP. Any use, copying, and all other rights are regul
   COPYR  = If you do not have a valid VASP license, you may not use, copy or distribute this file. 
   VRHFIN =Ce : [core= Kr 4d10]                                                                     
   LEXCH  = PE                                                                                      
   EATOM  =  1063.0861 eV,   78.1346 Ry                                                             
                                                                                                    
   TITEL  = PAW_PBE Ce 23Dec2003                                                                    
   LULTRA =        F    use ultrasoft PP ?                                                          
   IUNSCR =        1    unscreen: 0-lin 1-nonlin 2-no                                               
   RPACOR =    1.800    partial core radius                                                         
   POMASS =  140.115; ZVAL   =   12.000    mass and valenz                                          
   RCORE  =    2.700    outmost cutoff radius                                                       
   RWIGS  =    2.500; RWIGS  =    1.323    wigner-seitz radius (au A)                               
   ENMAX  =  273.042; ENMIN  =  204.781 eV                                                          
   RCLOC  =    1.810    cutoff for local pot                                                        
   LCOR   =        T    correct aug charges                                                         
   LPAW   =        T    paw PP                                                                      
   EAUG   =  580.196                                                                                
   DEXC   =    0.000                                                                                
   RMAX   =    2.749    core radius for proj-oper                                                   
   RAUG   =    1.300    factor for augmentation sphere                                              
   RDEP   =    2.810    radius for radial grids                                                     
   RDEPT  =    2.162    core radius for aug-charge                                                  
                                                                                                    
   Atomic configuration                                                                             
   14 entries                                                                                       
     n  l   j            E        occ.                                                              
     1  0  0.50    -40258.9816   2.0000                                                             
     2  0  0.50     -6445.4884   2.0000                                                             
     2  1  1.50     -5771.7470   6.0000                                                             
     3  0  0.50     -1387.9739   2.0000                                                             
     3  1  1.50     -1173.8158   6.0000                                                             
     3  2  2.50      -869.9108  10.0000                                                             
     4  0  0.50      -280.8706   2.0000                                                             
     4  1  1.50      -210.9815   6.0000                                                             
     4  2  2.50      -110.4558  10.0000                                                             
     5  0  0.50       -40.5819   2.0000                                                             
     6  0  0.50        -3.7444   2.0000                                                             
     5  1  1.50       -23.2188   6.0000                                                             
     5  2  2.50        -3.0598   1.0000                                                             
     4  3  2.50        -5.3970   1.0000                                                             
   Description                                                                                      
     l       E           TYP  RCUT    TYP  RCUT                                                     
     0    -40.5819164     23  1.500                                                                 
     0     -3.7443793     23  2.300                                                                 
     1    -23.2188445     23  2.000                                                                 
     1     40.8174780     23  2.300                                                                 
     2     -3.0597556     23  2.500                                                                 
     2     13.6058260     23  2.500                                                                 
     3     -5.3970469     23  2.700                                                                 
     3     -5.8505052     23  2.700                                                                 
  local pseudopotential read in
  partial core-charges read in
  partial kinetic energy density read in
  atomic valenz-charges read in
  non local Contribution for L=           0  read in
    real space projection operators read in
  non local Contribution for L=           0  read in
    real space projection operators read in
  non local Contribution for L=           1  read in
    real space projection operators read in
  non local Contribution for L=           1  read in
    real space projection operators read in
  non local Contribution for L=           2  read in
    real space projection operators read in
  non local Contribution for L=           2  read in
    real space projection operators read in
  non local Contribution for L=           3  read in
    real space projection operators read in
  non local Contribution for L=           3  read in
    real space projection operators read in
    PAW grid and wavefunctions read in

   number of l-projection  operators is LMAX  =           8
   number of lm-projection operators is LMMAX =          32

 POTCAR:    PAW_PBE Co 02Aug2007                  
   SHA256 =  0e690c60710354995174544f52f9f2c30879afabeffe3b3fbd4001cb294e56d4 Co/POTCAR             
   COPYR  = (c) Copyright 02Aug2007 Georg Kresse                                                    
   COPYR  = This file is part of the software VASP. Any use, copying, and all other rights are regul
   COPYR  = If you do not have a valid VASP license, you may not use, copy or distribute this file. 
   VRHFIN =Co: d8 s1                                                                                
   LEXCH  = PE                                                                                      
   EATOM  =   813.3670 eV,   59.7808 Ry                                                             
                                                                                                    
   TITEL  = PAW_PBE Co 02Aug2007                                                                    
   LULTRA =        F    use ultrasoft PP ?                                                          
   IUNSCR =        1    unscreen: 0-lin 1-nonlin 2-no                                               
   RPACOR =    2.000    partial core radius                                                         
   POMASS =   58.933; ZVAL   =    9.000    mass and valenz                                          
   RCORE  =    2.300    outmost cutoff radius                                                       
   RWIGS  =    2.460; RWIGS  =    1.302    wigner-seitz radius (au A)                               
   ENMAX  =  267.968; ENMIN  =  200.976 eV                                                          
   RCLOC  =    1.203    cutoff for local pot                                                        
   LCOR   =        T    correct aug charges                                                         
   LPAW   =        T    paw PP                                                                      
   EAUG   =  477.818                                                                                
   DEXC   =    0.000                                                                                
   RMAX   =    2.360    core radius for proj-oper                                                   
   RAUG   =    1.300    factor for augmentation sphere                                              
   RDEP   =    2.393    radius for radial grids                                                     
   RDEPT  =    1.864    core radius for aug-charge                                                  
                                                                                                    
   Atomic configuration                                                                             
    9 entries                                                                                       
     n  l   j            E        occ.                                                              
     1  0  0.50     -7587.6674   2.0000                                                             
     2  0  0.50      -893.6084   2.0000                                                             
     2  1  1.50      -764.5805   6.0000                                                             
     3  0  0.50       -97.5973   2.0000                                                             
     3  1  1.50       -60.9648   6.0000                                                             
     3  2  2.50        -4.2382   8.0000                                                             
     4  0  0.50        -4.3746   1.0000                                                             
     4  1  1.50        -4.0817   0.0000                                                             
     4  3  2.50        -1.3606   0.0000                                                             
   Description                                                                                      
     l       E           TYP  RCUT    TYP  RCUT                                                     
     2     -4.2382362     23  2.300                                                                 
     2     -5.5988188     23  2.300                                                                 
     0     -4.3745797     23  2.300                                                                 
     0      5.7660125     23  2.300                                                                 
     1     -2.7211652     23  2.300                                                                 
     1     16.9860234     23  2.300                                                                 
  local pseudopotential read in
  partial core-charges read in
  partial kinetic energy density read in
  atomic valenz-charges read in
  non local Contribution for L=           2  read in
    real space projection operators read in
  non local Contribution for L=           2  read in
    real space projection operators read in
  non local Contribution for L=           0  read in
    real space projection operators read in
  non local Contribution for L=           0  read in
    real space projection operators read in
  non local Contribution for L=           1  read in
    real space projection operators read in
  non local Contribution for L=           1  read in
    real space projection operators read in
    PAW grid and wavefunctions read in

   number of l-projection  operators is LMAX  =           6
   number of lm-projection operators is LMMAX =          18

  PAW_PBE Al 04Jan2001                  :
 energy of atom  1       EATOM=  -53.5387
 kinetic energy error for atom=    0.0003 (will be added to EATOM!!)
  PAW_PBE Ce 23Dec2003                  :
 energy of atom  2       EATOM=-1063.0861
 kinetic energy error for atom=    0.0156 (will be added to EATOM!!)
  PAW_PBE Co 02Aug2007                  :
 energy of atom  3       EATOM= -813.3670
 kinetic energy error for atom=    0.0028 (will be added to EATOM!!)


 POSCAR: Generated by VASPKIT code
  positions in direct lattice
  No initial velocities read in


 exchange-correlation table for PE
   RHO(1)=    0.500       N(1)  =     2000
   RHO(2)=  100.500       N(2)  =     4000



--------------------------------------------------------------------------------------------------------


 ion  position               nearest neighbor table
   1  0.569  0.500  0.303-  12 2.55  12 2.55   6 2.74   3 2.76   2 2.87   8 2.93   8 2.93   5 2.99
                             9 3.20   9 3.20  10 3.24  10 3.24
   2  0.431  0.500  0.697-  11 2.55  11 2.55   5 2.74   4 2.76   1 2.87   8 2.93   8 2.93   6 2.99
                            10 3.20  10 3.20   9 3.24   9 3.24
   3  0.931  0.500  0.303-  12 2.55  12 2.55   6 2.74   1 2.76   4 2.87   7 2.93   7 2.93   5 2.99
                             9 3.20   9 3.20  10 3.24  10 3.24
   4  0.069  0.500  0.697-  11 2.55  11 2.55   5 2.74   2 2.76   3 2.87   7 2.93   7 2.93   6 2.99
                            10 3.20  10 3.20   9 3.24   9 3.24
   5  0.250  0.500  0.045-  11 2.60  11 2.60   2 2.74   4 2.74   7 2.79   7 2.79   8 2.79   8 2.79
                             3 2.99   1 2.99   9 3.06   9 3.06
   6  0.750  0.500  0.955-  12 2.60  12 2.60   1 2.74   3 2.74   7 2.79   7 2.79   8 2.79   8 2.79
                             2 2.99   4 2.99  10 3.06  10 3.06
   7  0.000  0.000  0.000-  11 2.32  12 2.32   5 2.79   6 2.79   5 2.79   6 2.79   3 2.93   4 2.93
                             3 2.93   4 2.93   9 3.23  10 3.23
   8  0.500  0.000  0.000-  11 2.32  12 2.32   5 2.79   6 2.79   5 2.79   6 2.79   1 2.93   2 2.93
                             1 2.93   2 2.93   9 3.23  10 3.23
   9  0.250  0.000  0.384-  11 2.85   5 3.06   5 3.06   3 3.20   1 3.20   3 3.20   1 3.20   7 3.23
                             8 3.23   2 3.24   4 3.24   4 3.24   2 3.24
  10  0.750  0.000  0.616-  12 2.85   6 3.06   6 3.06   4 3.20   2 3.20   4 3.20   2 3.20   7 3.23
                             8 3.23   3 3.24   3 3.24   1 3.24   1 3.24
  11  0.250  0.000  0.804-   7 2.32   8 2.32   2 2.55   4 2.55   2 2.55   4 2.55   5 2.60   5 2.60
                             9 2.85
  12  0.750  0.000  0.196-   7 2.32   8 2.32   1 2.55   3 2.55   1 2.55   3 2.55   6 2.60   6 2.60
                            10 2.85

  LATTYP: Found a simple orthorhombic cell.
 ALAT       =     4.0425022321
 B/A-ratio  =     1.6811578994
 C/A-ratio  =     1.8805108604
  
  Lattice vectors:
  
 A1 = (   0.0000000000,   4.0425022321,   0.0000000000)
 A2 = (   0.0000000000,   0.0000000000,   6.7960845610)
 A3 = (   7.6019693506,   0.0000000000,   0.0000000000)


Analysis of symmetry for initial positions (statically):
=====================================================================
 Subroutine PRICEL returns:
 Original cell was already a primitive cell.
 

 Routine SETGRP: Setting up the symmetry group for a 
 simple orthorhombic supercell.


 Subroutine GETGRP returns: Found  8 space group operations
 (whereof  4 operations were pure point group operations)
 out of a pool of  8 trial point group operations.


The static configuration has the point symmetry C_2h.
 The point group associated with its full space group is D_2h.


Analysis of symmetry for dynamics (positions and initial velocities):
=====================================================================
 Subroutine PRICEL returns:
 Original cell was already a primitive cell.
 

 Routine SETGRP: Setting up the symmetry group for a 
 simple orthorhombic supercell.


 Subroutine GETGRP returns: Found  8 space group operations
 (whereof  4 operations were pure point group operations)
 out of a pool of  8 trial point group operations.


The dynamic configuration has the point symmetry C_2h.
 The point group associated with its full space group is D_2h.


 Subroutine INISYM returns: Found  8 space group operations
 (whereof  4 operations are pure point group operations),
 and found     1 'primitive' translations


----------------------------------------------------------------------------------------

                                     Primitive cell                                     

  volume of cell :     208.8503

  direct lattice vectors                    reciprocal lattice vectors
     7.601969351  0.000000000  0.000000000     0.131544861  0.000000000  0.000000000
     0.000000000  4.042502232  0.000000000     0.000000000  0.247371539  0.000000000
     0.000000000  0.000000000  6.796084561     0.000000000  0.000000000  0.147143549

  length of vectors
     7.601969351  4.042502232  6.796084561     0.131544861  0.247371539  0.147143549

  position of ions in fractional coordinates (direct lattice)
     0.568733325  0.500000000  0.303286242
     0.431266675  0.500000000  0.696713758
     0.931266675  0.500000000  0.303286242
     0.068733325  0.500000000  0.696713758
     0.250000000  0.500000000  0.045076650
     0.750000000  0.500000000  0.954923350
     0.000000000  0.000000000  0.000000000
     0.500000000  0.000000000  0.000000000
     0.250000000  0.000000000  0.383824291
     0.750000000  0.000000000  0.616175709
     0.250000000  0.000000000  0.803630368
     0.750000000  0.000000000  0.196369632

  ion indices of the primitive-cell ions
   primitive index   ion index
                 1           1
                 2           2
                 3           3
                 4           4
                 5           5
                 6           6
                 7           7
                 8           8
                 9           9
                10          10
                11          11
                12          12

----------------------------------------------------------------------------------------



 KPOINTS: K-Path Generated by VASPKIT.            

Interpolating k-points between supplied coordinates.

 Line segments in fractional coordinates (reciprocal lattice):
    0.000000  0.000000  0.000000  ...  0.500000  0.000000  0.000000
    0.500000  0.000000  0.000000  ...  0.500000  0.500000  0.000000
    0.500000  0.500000  0.000000  ...  0.000000  0.500000  0.000000
    0.000000  0.500000  0.000000  ...  0.000000  0.000000  0.000000
    0.000000  0.000000  0.000000  ...  0.000000  0.000000  0.500000
    0.000000  0.000000  0.500000  ...  0.500000  0.000000  0.500000
    0.500000  0.000000  0.500000  ...  0.500000  0.500000  0.500000
    0.500000  0.500000  0.500000  ...  0.000000  0.500000  0.500000
    0.000000  0.500000  0.500000  ...  0.000000  0.000000  0.500000
    0.500000  0.000000  0.000000  ...  0.500000  0.000000  0.500000
    0.000000  0.500000  0.000000  ...  0.000000  0.500000  0.500000
    0.500000  0.500000  0.000000  ...  0.500000  0.500000  0.500000

 Generated    20 points on each line segment, for a total of    240 k-points:

 Following reciprocal coordinates:
            Coordinates               Weight
  0.000000  0.000000  0.000000      0.004167
  0.026316  0.000000  0.000000      0.004167
  0.052632  0.000000  0.000000      0.004167
  0.078947  0.000000  0.000000      0.004167
  0.105263  0.000000  0.000000      0.004167
  0.131579  0.000000  0.000000      0.004167
  0.157895  0.000000  0.000000      0.004167
  0.184211  0.000000  0.000000      0.004167
  0.210526  0.000000  0.000000      0.004167
  0.236842  0.000000  0.000000      0.004167
  0.263158  0.000000  0.000000      0.004167
  0.289474  0.000000  0.000000      0.004167
  0.315789  0.000000  0.000000      0.004167
  0.342105  0.000000  0.000000      0.004167
  0.368421  0.000000  0.000000      0.004167
  0.394737  0.000000  0.000000      0.004167
  0.421053  0.000000  0.000000      0.004167
  0.447368  0.000000  0.000000      0.004167
  0.473684  0.000000  0.000000      0.004167
  0.500000  0.000000  0.000000      0.004167
  0.500000  0.000000  0.000000      0.004167
  0.500000  0.026316  0.000000      0.004167
  0.500000  0.052632  0.000000      0.004167
  0.500000  0.078947  0.000000      0.004167
  0.500000  0.105263  0.000000      0.004167
  0.500000  0.131579  0.000000      0.004167
  0.500000  0.157895  0.000000      0.004167
  0.500000  0.184211  0.000000      0.004167
  0.500000  0.210526  0.000000      0.004167
  0.500000  0.236842  0.000000      0.004167
  0.500000  0.263158  0.000000      0.004167
  0.500000  0.289474  0.000000      0.004167
  0.500000  0.315789  0.000000      0.004167
  0.500000  0.342105  0.000000      0.004167
  0.500000  0.368421  0.000000      0.004167
  0.500000  0.394737  0.000000      0.004167
  0.500000  0.421053  0.000000      0.004167
  0.500000  0.447368  0.000000      0.004167
  0.500000  0.473684  0.000000      0.004167
  0.500000  0.500000  0.000000      0.004167
  0.500000  0.500000  0.000000      0.004167
  0.473684  0.500000  0.000000      0.004167
  0.447368  0.500000  0.000000      0.004167
  0.421053  0.500000  0.000000      0.004167
  0.394737  0.500000  0.000000      0.004167
  0.368421  0.500000  0.000000      0.004167
  0.342105  0.500000  0.000000      0.004167
  0.315789  0.500000  0.000000      0.004167
  0.289474  0.500000  0.000000      0.004167
  0.263158  0.500000  0.000000      0.004167
  0.236842  0.500000  0.000000      0.004167
  0.210526  0.500000  0.000000      0.004167
  0.184211  0.500000  0.000000      0.004167
  0.157895  0.500000  0.000000      0.004167
  0.131579  0.500000  0.000000      0.004167
  0.105263  0.500000  0.000000      0.004167
  0.078947  0.500000  0.000000      0.004167
  0.052632  0.500000  0.000000      0.004167
  0.026316  0.500000  0.000000      0.004167
  0.000000  0.500000  0.000000      0.004167
  0.000000  0.500000  0.000000      0.004167
  0.000000  0.473684  0.000000      0.004167
  0.000000  0.447368  0.000000      0.004167
  0.000000  0.421053  0.000000      0.004167
  0.000000  0.394737  0.000000      0.004167
  0.000000  0.368421  0.000000      0.004167
  0.000000  0.342105  0.000000      0.004167
  0.000000  0.315789  0.000000      0.004167
  0.000000  0.289474  0.000000      0.004167
  0.000000  0.263158  0.000000      0.004167
  0.000000  0.236842  0.000000      0.004167
  0.000000  0.210526  0.000000      0.004167
  0.000000  0.184211  0.000000      0.004167
  0.000000  0.157895  0.000000      0.004167
  0.000000  0.131579  0.000000      0.004167
  0.000000  0.105263  0.000000      0.004167
  0.000000  0.078947  0.000000      0.004167
  0.000000  0.052632  0.000000      0.004167
  0.000000  0.026316  0.000000      0.004167
  0.000000  0.000000  0.000000      0.004167
  0.000000  0.000000  0.000000      0.004167
  0.000000  0.000000  0.026316      0.004167
  0.000000  0.000000  0.052632      0.004167
  0.000000  0.000000  0.078947      0.004167
  0.000000  0.000000  0.105263      0.004167
  0.000000  0.000000  0.131579      0.004167
  0.000000  0.000000  0.157895      0.004167
  0.000000  0.000000  0.184211      0.004167
  0.000000  0.000000  0.210526      0.004167
  0.000000  0.000000  0.236842      0.004167
  0.000000  0.000000  0.263158      0.004167
  0.000000  0.000000  0.289474      0.004167
  0.000000  0.000000  0.315789      0.004167
  0.000000  0.000000  0.342105      0.004167
  0.000000  0.000000  0.368421      0.004167
  0.000000  0.000000  0.394737      0.004167
  0.000000  0.000000  0.421053      0.004167
  0.000000  0.000000  0.447368      0.004167
  0.000000  0.000000  0.473684      0.004167
  0.000000  0.000000  0.500000      0.004167
  0.000000  0.000000  0.500000      0.004167
  0.026316  0.000000  0.500000      0.004167
  0.052632  0.000000  0.500000      0.004167
  0.078947  0.000000  0.500000      0.004167
  0.105263  0.000000  0.500000      0.004167
  0.131579  0.000000  0.500000      0.004167
  0.157895  0.000000  0.500000      0.004167
  0.184211  0.000000  0.500000      0.004167
  0.210526  0.000000  0.500000      0.004167
  0.236842  0.000000  0.500000      0.004167
  0.263158  0.000000  0.500000      0.004167
  0.289474  0.000000  0.500000      0.004167
  0.315789  0.000000  0.500000      0.004167
  0.342105  0.000000  0.500000      0.004167
  0.368421  0.000000  0.500000      0.004167
  0.394737  0.000000  0.500000      0.004167
  0.421053  0.000000  0.500000      0.004167
  0.447368  0.000000  0.500000      0.004167
  0.473684  0.000000  0.500000      0.004167
  0.500000  0.000000  0.500000      0.004167
  0.500000  0.000000  0.500000      0.004167
  0.500000  0.026316  0.500000      0.004167
  0.500000  0.052632  0.500000      0.004167
  0.500000  0.078947  0.500000      0.004167
  0.500000  0.105263  0.500000      0.004167
  0.500000  0.131579  0.500000      0.004167
  0.500000  0.157895  0.500000      0.004167
  0.500000  0.184211  0.500000      0.004167
  0.500000  0.210526  0.500000      0.004167
  0.500000  0.236842  0.500000      0.004167
  0.500000  0.263158  0.500000      0.004167
  0.500000  0.289474  0.500000      0.004167
  0.500000  0.315789  0.500000      0.004167
  0.500000  0.342105  0.500000      0.004167
  0.500000  0.368421  0.500000      0.004167
  0.500000  0.394737  0.500000      0.004167
  0.500000  0.421053  0.500000      0.004167
  0.500000  0.447368  0.500000      0.004167
  0.500000  0.473684  0.500000      0.004167
  0.500000  0.500000  0.500000      0.004167
  0.500000  0.500000  0.500000      0.004167
  0.473684  0.500000  0.500000      0.004167
  0.447368  0.500000  0.500000      0.004167
  0.421053  0.500000  0.500000      0.004167
  0.394737  0.500000  0.500000      0.004167
  0.368421  0.500000  0.500000      0.004167
  0.342105  0.500000  0.500000      0.004167
  0.315789  0.500000  0.500000      0.004167
  0.289474  0.500000  0.500000      0.004167
  0.263158  0.500000  0.500000      0.004167
  0.236842  0.500000  0.500000      0.004167
  0.210526  0.500000  0.500000      0.004167
  0.184211  0.500000  0.500000      0.004167
  0.157895  0.500000  0.500000      0.004167
  0.131579  0.500000  0.500000      0.004167
  0.105263  0.500000  0.500000      0.004167
  0.078947  0.500000  0.500000      0.004167
  0.052632  0.500000  0.500000      0.004167
  0.026316  0.500000  0.500000      0.004167
  0.000000  0.500000  0.500000      0.004167
  0.000000  0.500000  0.500000      0.004167
  0.000000  0.473684  0.500000      0.004167
  0.000000  0.447368  0.500000      0.004167
  0.000000  0.421053  0.500000      0.004167
  0.000000  0.394737  0.500000      0.004167
  0.000000  0.368421  0.500000      0.004167
  0.000000  0.342105  0.500000      0.004167
  0.000000  0.315789  0.500000      0.004167
  0.000000  0.289474  0.500000      0.004167
  0.000000  0.263158  0.500000      0.004167
  0.000000  0.236842  0.500000      0.004167
  0.000000  0.210526  0.500000      0.004167
  0.000000  0.184211  0.500000      0.004167
  0.000000  0.157895  0.500000      0.004167
  0.000000  0.131579  0.500000      0.004167
  0.000000  0.105263  0.500000      0.004167
  0.000000  0.078947  0.500000      0.004167
  0.000000  0.052632  0.500000      0.004167
  0.000000  0.026316  0.500000      0.004167
  0.000000  0.000000  0.500000      0.004167
  0.500000  0.000000  0.000000      0.004167
  0.500000  0.000000  0.026316      0.004167
  0.500000  0.000000  0.052632      0.004167
  0.500000  0.000000  0.078947      0.004167
  0.500000  0.000000  0.105263      0.004167
  0.500000  0.000000  0.131579      0.004167
  0.500000  0.000000  0.157895      0.004167
  0.500000  0.000000  0.184211      0.004167
  0.500000  0.000000  0.210526      0.004167
  0.500000  0.000000  0.236842      0.004167
  0.500000  0.000000  0.263158      0.004167
  0.500000  0.000000  0.289474      0.004167
  0.500000  0.000000  0.315789      0.004167
  0.500000  0.000000  0.342105      0.004167
  0.500000  0.000000  0.368421      0.004167
  0.500000  0.000000  0.394737      0.004167
  0.500000  0.000000  0.421053      0.004167
  0.500000  0.000000  0.447368      0.004167
  0.500000  0.000000  0.473684      0.004167
  0.500000  0.000000  0.500000      0.004167
  0.000000  0.500000  0.000000      0.004167
  0.000000  0.500000  0.026316      0.004167
  0.000000  0.500000  0.052632      0.004167
  0.000000  0.500000  0.078947      0.004167
  0.000000  0.500000  0.105263      0.004167
  0.000000  0.500000  0.131579      0.004167
  0.000000  0.500000  0.157895      0.004167
  0.000000  0.500000  0.184211      0.004167
  0.000000  0.500000  0.210526      0.004167
  0.000000  0.500000  0.236842      0.004167
  0.000000  0.500000  0.263158      0.004167
  0.000000  0.500000  0.289474      0.004167
  0.000000  0.500000  0.315789      0.004167
  0.000000  0.500000  0.342105      0.004167
  0.000000  0.500000  0.368421      0.004167
  0.000000  0.500000  0.394737      0.004167
  0.000000  0.500000  0.421053      0.004167
  0.000000  0.500000  0.447368      0.004167
  0.000000  0.500000  0.473684      0.004167
  0.000000  0.500000  0.500000      0.004167
  0.500000  0.500000  0.000000      0.004167
  0.500000  0.500000  0.026316      0.004167
  0.500000  0.500000  0.052632      0.004167
  0.500000  0.500000  0.078947      0.004167
  0.500000  0.500000  0.105263      0.004167
  0.500000  0.500000  0.131579      0.004167
  0.500000  0.500000  0.157895      0.004167
  0.500000  0.500000  0.184211      0.004167
  0.500000  0.500000  0.210526      0.004167
  0.500000  0.500000  0.236842      0.004167
  0.500000  0.500000  0.263158      0.004167
  0.500000  0.500000  0.289474      0.004167
  0.500000  0.500000  0.315789      0.004167
  0.500000  0.500000  0.342105      0.004167
  0.500000  0.500000  0.368421      0.004167
  0.500000  0.500000  0.394737      0.004167
  0.500000  0.500000  0.421053      0.004167
  0.500000  0.500000  0.447368      0.004167
  0.500000  0.500000  0.473684      0.004167
  0.500000  0.500000  0.500000      0.004167

 Following cartesian coordinates:
            Coordinates               Weight
  0.000000  0.000000  0.000000      0.004167
  0.003462  0.000000  0.000000      0.004167
  0.006923  0.000000  0.000000      0.004167
  0.010385  0.000000  0.000000      0.004167
  0.013847  0.000000  0.000000      0.004167
  0.017309  0.000000  0.000000      0.004167
  0.020770  0.000000  0.000000      0.004167
  0.024232  0.000000  0.000000      0.004167
  0.027694  0.000000  0.000000      0.004167
  0.031155  0.000000  0.000000      0.004167
  0.034617  0.000000  0.000000      0.004167
  0.038079  0.000000  0.000000      0.004167
  0.041540  0.000000  0.000000      0.004167
  0.045002  0.000000  0.000000      0.004167
  0.048464  0.000000  0.000000      0.004167
  0.051926  0.000000  0.000000      0.004167
  0.055387  0.000000  0.000000      0.004167
  0.058849  0.000000  0.000000      0.004167
  0.062311  0.000000  0.000000      0.004167
  0.065772  0.000000  0.000000      0.004167
  0.065772  0.000000  0.000000      0.004167
  0.065772  0.006510  0.000000      0.004167
  0.065772  0.013020  0.000000      0.004167
  0.065772  0.019529  0.000000      0.004167
  0.065772  0.026039  0.000000      0.004167
  0.065772  0.032549  0.000000      0.004167
  0.065772  0.039059  0.000000      0.004167
  0.065772  0.045568  0.000000      0.004167
  0.065772  0.052078  0.000000      0.004167
  0.065772  0.058588  0.000000      0.004167
  0.065772  0.065098  0.000000      0.004167
  0.065772  0.071608  0.000000      0.004167
  0.065772  0.078117  0.000000      0.004167
  0.065772  0.084627  0.000000      0.004167
  0.065772  0.091137  0.000000      0.004167
  0.065772  0.097647  0.000000      0.004167
  0.065772  0.104156  0.000000      0.004167
  0.065772  0.110666  0.000000      0.004167
  0.065772  0.117176  0.000000      0.004167
  0.065772  0.123686  0.000000      0.004167
  0.065772  0.123686  0.000000      0.004167
  0.062311  0.123686  0.000000      0.004167
  0.058849  0.123686  0.000000      0.004167
  0.055387  0.123686  0.000000      0.004167
  0.051926  0.123686  0.000000      0.004167
  0.048464  0.123686  0.000000      0.004167
  0.045002  0.123686  0.000000      0.004167
  0.041540  0.123686  0.000000      0.004167
  0.038079  0.123686  0.000000      0.004167
  0.034617  0.123686  0.000000      0.004167
  0.031155  0.123686  0.000000      0.004167
  0.027694  0.123686  0.000000      0.004167
  0.024232  0.123686  0.000000      0.004167
  0.020770  0.123686  0.000000      0.004167
  0.017309  0.123686  0.000000      0.004167
  0.013847  0.123686  0.000000      0.004167
  0.010385  0.123686  0.000000      0.004167
  0.006923  0.123686  0.000000      0.004167
  0.003462  0.123686  0.000000      0.004167
  0.000000  0.123686  0.000000      0.004167
  0.000000  0.123686  0.000000      0.004167
  0.000000  0.117176  0.000000      0.004167
  0.000000  0.110666  0.000000      0.004167
  0.000000  0.104156  0.000000      0.004167
  0.000000  0.097647  0.000000      0.004167
  0.000000  0.091137  0.000000      0.004167
  0.000000  0.084627  0.000000      0.004167
  0.000000  0.078117  0.000000      0.004167
  0.000000  0.071608  0.000000      0.004167
  0.000000  0.065098  0.000000      0.004167
  0.000000  0.058588  0.000000      0.004167
  0.000000  0.052078  0.000000      0.004167
  0.000000  0.045568  0.000000      0.004167
  0.000000  0.039059  0.000000      0.004167
  0.000000  0.032549  0.000000      0.004167
  0.000000  0.026039  0.000000      0.004167
  0.000000  0.019529  0.000000      0.004167
  0.000000  0.013020  0.000000      0.004167
  0.000000  0.006510  0.000000      0.004167
  0.000000  0.000000  0.000000      0.004167
  0.000000  0.000000  0.000000      0.004167
  0.000000  0.000000  0.003872      0.004167
  0.000000  0.000000  0.007744      0.004167
  0.000000  0.000000  0.011617      0.004167
  0.000000  0.000000  0.015489      0.004167
  0.000000  0.000000  0.019361      0.004167
  0.000000  0.000000  0.023233      0.004167
  0.000000  0.000000  0.027105      0.004167
  0.000000  0.000000  0.030978      0.004167
  0.000000  0.000000  0.034850      0.004167
  0.000000  0.000000  0.038722      0.004167
  0.000000  0.000000  0.042594      0.004167
  0.000000  0.000000  0.046466      0.004167
  0.000000  0.000000  0.050339      0.004167
  0.000000  0.000000  0.054211      0.004167
  0.000000  0.000000  0.058083      0.004167
  0.000000  0.000000  0.061955      0.004167
  0.000000  0.000000  0.065827      0.004167
  0.000000  0.000000  0.069700      0.004167
  0.000000  0.000000  0.073572      0.004167
  0.000000  0.000000  0.073572      0.004167
  0.003462  0.000000  0.073572      0.004167
  0.006923  0.000000  0.073572      0.004167
  0.010385  0.000000  0.073572      0.004167
  0.013847  0.000000  0.073572      0.004167
  0.017309  0.000000  0.073572      0.004167
  0.020770  0.000000  0.073572      0.004167
  0.024232  0.000000  0.073572      0.004167
  0.027694  0.000000  0.073572      0.004167
  0.031155  0.000000  0.073572      0.004167
  0.034617  0.000000  0.073572      0.004167
  0.038079  0.000000  0.073572      0.004167
  0.041540  0.000000  0.073572      0.004167
  0.045002  0.000000  0.073572      0.004167
  0.048464  0.000000  0.073572      0.004167
  0.051926  0.000000  0.073572      0.004167
  0.055387  0.000000  0.073572      0.004167
  0.058849  0.000000  0.073572      0.004167
  0.062311  0.000000  0.073572      0.004167
  0.065772  0.000000  0.073572      0.004167
  0.065772  0.000000  0.073572      0.004167
  0.065772  0.006510  0.073572      0.004167
  0.065772  0.013020  0.073572      0.004167
  0.065772  0.019529  0.073572      0.004167
  0.065772  0.026039  0.073572      0.004167
  0.065772  0.032549  0.073572      0.004167
  0.065772  0.039059  0.073572      0.004167
  0.065772  0.045568  0.073572      0.004167
  0.065772  0.052078  0.073572      0.004167
  0.065772  0.058588  0.073572      0.004167
  0.065772  0.065098  0.073572      0.004167
  0.065772  0.071608  0.073572      0.004167
  0.065772  0.078117  0.073572      0.004167
  0.065772  0.084627  0.073572      0.004167
  0.065772  0.091137  0.073572      0.004167
  0.065772  0.097647  0.073572      0.004167
  0.065772  0.104156  0.073572      0.004167
  0.065772  0.110666  0.073572      0.004167
  0.065772  0.117176  0.073572      0.004167
  0.065772  0.123686  0.073572      0.004167
  0.065772  0.123686  0.073572      0.004167
  0.062311  0.123686  0.073572      0.004167
  0.058849  0.123686  0.073572      0.004167
  0.055387  0.123686  0.073572      0.004167
  0.051926  0.123686  0.073572      0.004167
  0.048464  0.123686  0.073572      0.004167
  0.045002  0.123686  0.073572      0.004167
  0.041540  0.123686  0.073572      0.004167
  0.038079  0.123686  0.073572      0.004167
  0.034617  0.123686  0.073572      0.004167
  0.031155  0.123686  0.073572      0.004167
  0.027694  0.123686  0.073572      0.004167
  0.024232  0.123686  0.073572      0.004167
  0.020770  0.123686  0.073572      0.004167
  0.017309  0.123686  0.073572      0.004167
  0.013847  0.123686  0.073572      0.004167
  0.010385  0.123686  0.073572      0.004167
  0.006923  0.123686  0.073572      0.004167
  0.003462  0.123686  0.073572      0.004167
  0.000000  0.123686  0.073572      0.004167
  0.000000  0.123686  0.073572      0.004167
  0.000000  0.117176  0.073572      0.004167
  0.000000  0.110666  0.073572      0.004167
  0.000000  0.104156  0.073572      0.004167
  0.000000  0.097647  0.073572      0.004167
  0.000000  0.091137  0.073572      0.004167
  0.000000  0.084627  0.073572      0.004167
  0.000000  0.078117  0.073572      0.004167
  0.000000  0.071608  0.073572      0.004167
  0.000000  0.065098  0.073572      0.004167
  0.000000  0.058588  0.073572      0.004167
  0.000000  0.052078  0.073572      0.004167
  0.000000  0.045568  0.073572      0.004167
  0.000000  0.039059  0.073572      0.004167
  0.000000  0.032549  0.073572      0.004167
  0.000000  0.026039  0.073572      0.004167
  0.000000  0.019529  0.073572      0.004167
  0.000000  0.013020  0.073572      0.004167
  0.000000  0.006510  0.073572      0.004167
  0.000000  0.000000  0.073572      0.004167
  0.065772  0.000000  0.000000      0.004167
  0.065772  0.000000  0.003872      0.004167
  0.065772  0.000000  0.007744      0.004167
  0.065772  0.000000  0.011617      0.004167
  0.065772  0.000000  0.015489      0.004167
  0.065772  0.000000  0.019361      0.004167
  0.065772  0.000000  0.023233      0.004167
  0.065772  0.000000  0.027105      0.004167
  0.065772  0.000000  0.030978      0.004167
  0.065772  0.000000  0.034850      0.004167
  0.065772  0.000000  0.038722      0.004167
  0.065772  0.000000  0.042594      0.004167
  0.065772  0.000000  0.046466      0.004167
  0.065772  0.000000  0.050339      0.004167
  0.065772  0.000000  0.054211      0.004167
  0.065772  0.000000  0.058083      0.004167
  0.065772  0.000000  0.061955      0.004167
  0.065772  0.000000  0.065827      0.004167
  0.065772  0.000000  0.069700      0.004167
  0.065772  0.000000  0.073572      0.004167
  0.000000  0.123686  0.000000      0.004167
  0.000000  0.123686  0.003872      0.004167
  0.000000  0.123686  0.007744      0.004167
  0.000000  0.123686  0.011617      0.004167
  0.000000  0.123686  0.015489      0.004167
  0.000000  0.123686  0.019361      0.004167
  0.000000  0.123686  0.023233      0.004167
  0.000000  0.123686  0.027105      0.004167
  0.000000  0.123686  0.030978      0.004167
  0.000000  0.123686  0.034850      0.004167
  0.000000  0.123686  0.038722      0.004167
  0.000000  0.123686  0.042594      0.004167
  0.000000  0.123686  0.046466      0.004167
  0.000000  0.123686  0.050339      0.004167
  0.000000  0.123686  0.054211      0.004167
  0.000000  0.123686  0.058083      0.004167
  0.000000  0.123686  0.061955      0.004167
  0.000000  0.123686  0.065827      0.004167
  0.000000  0.123686  0.069700      0.004167
  0.000000  0.123686  0.073572      0.004167
  0.065772  0.123686  0.000000      0.004167
  0.065772  0.123686  0.003872      0.004167
  0.065772  0.123686  0.007744      0.004167
  0.065772  0.123686  0.011617      0.004167
  0.065772  0.123686  0.015489      0.004167
  0.065772  0.123686  0.019361      0.004167
  0.065772  0.123686  0.023233      0.004167
  0.065772  0.123686  0.027105      0.004167
  0.065772  0.123686  0.030978      0.004167
  0.065772  0.123686  0.034850      0.004167
  0.065772  0.123686  0.038722      0.004167
  0.065772  0.123686  0.042594      0.004167
  0.065772  0.123686  0.046466      0.004167
  0.065772  0.123686  0.050339      0.004167
  0.065772  0.123686  0.054211      0.004167
  0.065772  0.123686  0.058083      0.004167
  0.065772  0.123686  0.061955      0.004167
  0.065772  0.123686  0.065827      0.004167
  0.065772  0.123686  0.069700      0.004167
  0.065772  0.123686  0.073572      0.004167



--------------------------------------------------------------------------------------------------------




 Dimension of arrays:
   k-points           NKPTS =    240   k-points in BZ     NKDIM =    240   number of bands    NBANDS=     40
   number of dos      NEDOS =   1001   number of ions     NIONS =     12
   non local maximal  LDIM  =      8   non local SUM 2l+1 LMDIM =     32
   total plane-waves  NPLWV =  84000
   max r-space proj   IRMAX =      1   max aug-charges    IRDMAX=  21397
   dimension x,y,z NGX =    56 NGY =   30 NGZ =   50
   dimension x,y,z NGXF=   112 NGYF=   60 NGZF=  100
   support grid    NGXF=   112 NGYF=   60 NGZF=  100
   ions per type =               8   2   2
   NGX,Y,Z   is equivalent  to a cutoff of  12.25, 12.34, 12.23 a.u.
   NGXF,Y,Z  is equivalent  to a cutoff of  24.49, 24.67, 24.46 a.u.

 SYSTEM =  unknown system                          
 POSCAR =  Generated by VASPKIT code               

 Startparameter for this run:
   NWRITE =      2    write-flag & timer
   PREC   = accura    normal or accurate (medium, high low for compatibility)
   ISTART =      1    job   : 0-new  1-cont  2-samecut
   ICHARG =      0    charge: 1-file 2-atom 10-const
   ISPIN  =      1    spin polarized calculation?
   LNONCOLLINEAR =      F non collinear calculations
   LSORBIT =      F    spin-orbit coupling
   INIWAV =      1    electr: 0-lowe 1-rand  2-diag
   LASPH  =      F    aspherical Exc in radial PAW
 Electronic Relaxation 1
   ENCUT  =  500.0 eV  36.75 Ry    6.06 a.u.  13.86  7.37 12.39*2*pi/ulx,y,z
   ENINI  =  500.0     initial cutoff
   ENAUG  =  580.2 eV  augmentation charge cutoff
   NELM   =    400;   NELMIN=  4; NELMDL=  0     # of ELM steps 
   EDIFF  = 0.1E-07   stopping-criterion for ELM
   LREAL  =      F    real-space projection
   NLSPLINE    = F    spline interpolate recip. space projectors
   LCOMPAT=      F    compatible to vasp.4.4
   GGA_COMPAT  = T    GGA compatible to vasp.4.4-vasp.4.6
   LMAXPAW     = -100 max onsite density
   LMAXMIX     =    2 max onsite mixed and CHGCAR
   VOSKOWN=      0    Vosko Wilk Nusair interpolation
   ROPT   =    0.00000   0.00000   0.00000
 Ionic relaxation
   EDIFFG = 0.1E-06   stopping-criterion for IOM
   NSW    =      0    number of steps for IOM
   NBLOCK =      1;   KBLOCK =      1    inner block; outer block 
   IBRION =     -1    ionic relax: 0-MD 1-quasi-New 2-CG
   NFREE  =      0    steps in history (QN), initial steepest desc. (CG)
   ISIF   =      2    stress and relaxation
   IWAVPR =     10    prediction:  0-non 1-charg 2-wave 3-comb
   ISYM   =      2    0-nonsym 1-usesym 2-fastsym
   LCORR  =      T    Harris-Foulkes like correction to forces

   POTIM  = 0.5000    time-step for ionic-motion
   TEIN   =    0.0    initial temperature
   TEBEG  =    0.0;   TEEND  =   0.0 temperature during run
   SMASS  =  -3.00    Nose mass-parameter (am)
   estimated Nose-frequenzy (Omega)   =  0.10E-29 period in steps = 0.13E+47 mass=  -0.132E-26a.u.
   SCALEE = 1.0000    scale energy and forces
   NPACO  =    256;   APACO  = 10.0  distance and # of slots for P.C.
   PSTRESS=    0.0 pullay stress

  Mass of Ions in am
   POMASS =  26.98140.12 58.93
  Ionic Valenz
   ZVAL   =   3.00 12.00  9.00
  Atomic Wigner-Seitz radii
   RWIGS  =  -1.00 -1.00 -1.00
  virtual crystal weights 
   VCA    =   1.00  1.00  1.00
   NELECT =      66.0000    total number of electrons
   NUPDOWN=      -1.0000    fix difference up-down

 DOS related values:
   EMIN   =  10.00;   EMAX   =-10.00  energy-range for DOS
   EFERMI =   0.00;   METHOD = LEGACY      
   ISMEAR =     1;   SIGMA  =   0.20  broadening in eV -4-tet -1-fermi 0-gaus
   EFERMI_NEDOS =   21; number of points for ismear=-14 and -15

 Electronic relaxation 2 (details)
   IALGO  =     38    algorithm
   LDIAG  =      T    sub-space diagonalisation (order eigenvalues)
   LSUBROT=      F    optimize rotation matrix (better conditioning)
   LROBUST=      F    robust break criterion during scf (extrapolated energy error)
   ISEARCH=      0    line search for conjugate gradient (0, 1=use gradient)
   TURBO    =      0    0=normal 1=particle mesh
   IRESTART =      0    0=no restart 2=restart with 2 vectors
   NREBOOT  =      0    no. of reboots
   NMIN     =      0    reboot dimension
   EREF     =   0.00    reference energy to select bands
   IMIX   =      4    mixing-type and parameters
     AMIX     =   0.40;   BMIX     =  1.00
     AMIX_MAG =   1.60;   BMIX_MAG =  1.00
     AMIN     =   0.10
     WC   =   100.;   INIMIX=   1;  MIXPRE=   1;  MAXMIX= -45

 Intra band minimization:
   WEIMIN = 0.0000     energy-eigenvalue tresh-hold
   EBREAK =  0.63E-10  absolut break condition
   DEPER  =   0.30     relativ break condition  

   TIME   =   0.40     timestep for ELM

  volume/ion in A,a.u.               =      17.40       117.45
  Fermi-wavevector in a.u.,A,eV,Ry     =   1.115093  2.107220 16.917925  1.243432
  Thomas-Fermi vector in A             =   2.251694

 Write flags
   LWAVE        =      T    write WAVECAR
   LDOWNSAMPLE  =      F    k-point downsampling of WAVECAR
   LCHARG       =      T    write CHGCAR
   LVTOT        =      F    write LOCPOT, total local potential
   LVHAR        =      F    write LOCPOT, Hartree potential only
   WRT_POTENTIAL= false  ! write potential to hdf5 file
   LELF         =      F    write electronic localiz. function (ELF)
   LORBIT       =     10    0 simple, 1 ext, 2 COOP (PROOUT), +10 PAW based schemes


 Python interface
   PLUGINS active      =      F    recompile with -DPLUGINS to activate

 Dipole corrections
   LMONO      =      F    monopole corrections only (constant potential shift)
   LDIPOL     =      F    correct potential (dipole corrections)
   IDIPOL     =      0    1-x, 2-y, 3-z, 4-all directions 
   EPSILON    =  1.0000000 bulk dielectric constant
   LVACPOTAV  =      F  vacuum potentials using an averaging scheme for the charge density
   VACPOTFLAT =  0.1000000 required flatness to determine vacuum potential

Coulomb truncation method
  LTRUNCATE          =      F  Coulomb kernel truncation to be used


 Exchange correlation treatment:
   GGA     = PE    functional components
   XC_C    = 1    coefficients multiplying the functional components
   LIBXC   =     F    Libxc                    
   VOSKOWN =     0    Vosko Wilk Nusair interpolation
   LHFCALC =     F    Hartree Fock is set to
   LHFONE  =     F    Hartree Fock one center treatment
   AEXX    =    0.0000 exact exchange contribution

 Parameters of functionals:
   PE:
     No parameter

 Van der Waals corrections
   IVDW    =     0    specifies the selected vdW correction

 Linear response parameters
   LEPSILON=     F    determine dielectric tensor
   LRPA    =     F    only Hartree local field effects (RPA)
   LNABLA  =     F    use nabla operator in PAW spheres
   LVEL    =     F    velocity operator in full k-point grid
   CSHIFT  =0.1000    complex shift for real part using Kramers Kronig
   OMEGAMAX=  -1.0    maximum frequency
   DEG_THRESHOLD= 0.2000000E-02 threshold for treating states as degnerate
   RTIME   =   -0.100 relaxation time in fs
  (WPLASMAI=    0.000 imaginary part of plasma frequency in eV, 0.658/RTIME)
   DFIELD  = 0.0000000 0.0000000 0.0000000 field for delta impulse in time

  Optional k-point grid parameters
   LKPOINTS_OPT  =     F    use optional k-point grid
   KPOINTS_OPT_MODE=     1    mode for optional k-point grid

 Orbital magnetization related:
   ORBITALMAG=     F  switch on orbital magnetization
   LCHIMAG   =     F  perturbation theory with respect to B field
   DQ        =  0.001000  dq finite difference perturbation B field
   LLRAUG    =     F  two centre corrections for induced B field
   LBONE     =     F  B-component reconstruction in AE one-centre
   LVGVCALC  =     T  calculate vGv susceptibility
   LVGVAPPL  =     F  apply vGv susceptibility instead of pGv for G=0

 Random number generation:
   RANDOM_GENERATOR = DEFAULT
   PCG_SEED         = not used


--------------------------------------------------------------------------------------------------------


 Static calculation
 charge density and potential will be updated during run
 non-spin polarized calculation
 Variant of blocked Davidson
 Davidson routine will perform the subspace rotation
 perform sub-space diagonalisation
    after iterative eigenvector-optimisation
 modified Broyden-mixing scheme, WC =      100.0
 initial mixing is a Kerker type mixing with AMIX =  0.4000 and BMIX =      1.0000
 Hartree-type preconditioning will be used
 using additional bands            7
 reciprocal scheme for non local part
 use partial core corrections
 calculate Harris-corrections to forces   (improved forces if not selfconsistent)
 use gradient corrections 
 use of overlap-Matrix (Vanderbilt PP)
 Methfessel and Paxton  Order N= 1 SIGMA  =   0.20


--------------------------------------------------------------------------------------------------------


  energy-cutoff  :      500.00
  volume of cell :      208.85
      direct lattice vectors                 reciprocal lattice vectors
     7.601969351  0.000000000  0.000000000     0.131544861  0.000000000  0.000000000
     0.000000000  4.042502232  0.000000000     0.000000000  0.247371539  0.000000000
     0.000000000  0.000000000  6.796084561     0.000000000  0.000000000  0.147143549

  length of vectors
     7.601969351  4.042502232  6.796084561     0.131544861  0.247371539  0.147143549



 old parameters found on file WAVECAR:
  energy-cutoff  :      500.00
  volume of cell :      208.85
      direct lattice vectors                 reciprocal lattice vectors
     7.601969351  0.000000000  0.000000000     0.131544861  0.000000000  0.000000000
     0.000000000  4.042502232  0.000000000     0.000000000  0.247371539  0.000000000
     0.000000000  0.000000000  6.796084561     0.000000000  0.000000000  0.147143549

  length of vectors


 k-points in units of 2pi/SCALE and weight: K-Path Generated by VASPKIT.            
   0.00000000  0.00000000  0.00000000       0.004
   0.00346171  0.00000000  0.00000000       0.004
   0.00692341  0.00000000  0.00000000       0.004
   0.01038512  0.00000000  0.00000000       0.004
   0.01384683  0.00000000  0.00000000       0.004
   0.01730853  0.00000000  0.00000000       0.004
   0.02077024  0.00000000  0.00000000       0.004
   0.02423195  0.00000000  0.00000000       0.004
   0.02769365  0.00000000  0.00000000       0.004
   0.03115536  0.00000000  0.00000000       0.004
   0.03461707  0.00000000  0.00000000       0.004
   0.03807878  0.00000000  0.00000000       0.004
   0.04154048  0.00000000  0.00000000       0.004
   0.04500219  0.00000000  0.00000000       0.004
   0.04846390  0.00000000  0.00000000       0.004
   0.05192560  0.00000000  0.00000000       0.004
   0.05538731  0.00000000  0.00000000       0.004
   0.05884902  0.00000000  0.00000000       0.004
   0.06231072  0.00000000  0.00000000       0.004
   0.06577243  0.00000000  0.00000000       0.004
   0.06577243  0.00000000  0.00000000       0.004
   0.06577243  0.00650978  0.00000000       0.004
   0.06577243  0.01301955  0.00000000       0.004
   0.06577243  0.01952933  0.00000000       0.004
   0.06577243  0.02603911  0.00000000       0.004
   0.06577243  0.03254889  0.00000000       0.004
   0.06577243  0.03905866  0.00000000       0.004
   0.06577243  0.04556844  0.00000000       0.004
   0.06577243  0.05207822  0.00000000       0.004
   0.06577243  0.05858800  0.00000000       0.004
   0.06577243  0.06509777  0.00000000       0.004
   0.06577243  0.07160755  0.00000000       0.004
   0.06577243  0.07811733  0.00000000       0.004
   0.06577243  0.08462711  0.00000000       0.004
   0.06577243  0.09113688  0.00000000       0.004
   0.06577243  0.09764666  0.00000000       0.004
   0.06577243  0.10415644  0.00000000       0.004
   0.06577243  0.11066621  0.00000000       0.004
   0.06577243  0.11717599  0.00000000       0.004
   0.06577243  0.12368577  0.00000000       0.004
   0.06577243  0.12368577  0.00000000       0.004
   0.06231072  0.12368577  0.00000000       0.004
   0.05884902  0.12368577  0.00000000       0.004
   0.05538731  0.12368577  0.00000000       0.004
   0.05192560  0.12368577  0.00000000       0.004
   0.04846390  0.12368577  0.00000000       0.004
   0.04500219  0.12368577  0.00000000       0.004
   0.04154048  0.12368577  0.00000000       0.004
   0.03807878  0.12368577  0.00000000       0.004
   0.03461707  0.12368577  0.00000000       0.004
   0.03115536  0.12368577  0.00000000       0.004
   0.02769365  0.12368577  0.00000000       0.004
   0.02423195  0.12368577  0.00000000       0.004
   0.02077024  0.12368577  0.00000000       0.004
   0.01730853  0.12368577  0.00000000       0.004
   0.01384683  0.12368577  0.00000000       0.004
   0.01038512  0.12368577  0.00000000       0.004
   0.00692341  0.12368577  0.00000000       0.004
   0.00346171  0.12368577  0.00000000       0.004
   0.00000000  0.12368577  0.00000000       0.004
   0.00000000  0.12368577  0.00000000       0.004
   0.00000000  0.11717599  0.00000000       0.004
   0.00000000  0.11066621  0.00000000       0.004
   0.00000000  0.10415644  0.00000000       0.004
   0.00000000  0.09764666  0.00000000       0.004
   0.00000000  0.09113688  0.00000000       0.004
   0.00000000  0.08462711  0.00000000       0.004
   0.00000000  0.07811733  0.00000000       0.004
   0.00000000  0.07160755  0.00000000       0.004
   0.00000000  0.06509777  0.00000000       0.004
   0.00000000  0.05858800  0.00000000       0.004
   0.00000000  0.05207822  0.00000000       0.004
   0.00000000  0.04556844  0.00000000       0.004
   0.00000000  0.03905866  0.00000000       0.004
   0.00000000  0.03254889  0.00000000       0.004
   0.00000000  0.02603911  0.00000000       0.004
   0.00000000  0.01952933  0.00000000       0.004
   0.00000000  0.01301955  0.00000000       0.004
   0.00000000  0.00650978  0.00000000       0.004
   0.00000000  0.00000000  0.00000000       0.004
   0.00000000  0.00000000  0.00000000       0.004
   0.00000000  0.00000000  0.00387220       0.004
   0.00000000  0.00000000  0.00774440       0.004
   0.00000000  0.00000000  0.01161660       0.004
   0.00000000  0.00000000  0.01548879       0.004
   0.00000000  0.00000000  0.01936099       0.004
   0.00000000  0.00000000  0.02323319       0.004
   0.00000000  0.00000000  0.02710539       0.004
   0.00000000  0.00000000  0.03097759       0.004
   0.00000000  0.00000000  0.03484979       0.004
   0.00000000  0.00000000  0.03872199       0.004
   0.00000000  0.00000000  0.04259419       0.004
   0.00000000  0.00000000  0.04646638       0.004
   0.00000000  0.00000000  0.05033858       0.004
   0.00000000  0.00000000  0.05421078       0.004
   0.00000000  0.00000000  0.05808298       0.004
   0.00000000  0.00000000  0.06195518       0.004
   0.00000000  0.00000000  0.06582738       0.004
   0.00000000  0.00000000  0.06969958       0.004
   0.00000000  0.00000000  0.07357177       0.004
   0.00000000  0.00000000  0.07357177       0.004
   0.00346171  0.00000000  0.07357177       0.004
   0.00692341  0.00000000  0.07357177       0.004
   0.01038512  0.00000000  0.07357177       0.004
   0.01384683  0.00000000  0.07357177       0.004
   0.01730853  0.00000000  0.07357177       0.004
   0.02077024  0.00000000  0.07357177       0.004
   0.02423195  0.00000000  0.07357177       0.004
   0.02769365  0.00000000  0.07357177       0.004
   0.03115536  0.00000000  0.07357177       0.004
   0.03461707  0.00000000  0.07357177       0.004
   0.03807878  0.00000000  0.07357177       0.004
   0.04154048  0.00000000  0.07357177       0.004
   0.04500219  0.00000000  0.07357177       0.004
   0.04846390  0.00000000  0.07357177       0.004
   0.05192560  0.00000000  0.07357177       0.004
   0.05538731  0.00000000  0.07357177       0.004
   0.05884902  0.00000000  0.07357177       0.004
   0.06231072  0.00000000  0.07357177       0.004
   0.06577243  0.00000000  0.07357177       0.004
   0.06577243  0.00000000  0.07357177       0.004
   0.06577243  0.00650978  0.07357177       0.004
   0.06577243  0.01301955  0.07357177       0.004
   0.06577243  0.01952933  0.07357177       0.004
   0.06577243  0.02603911  0.07357177       0.004
   0.06577243  0.03254889  0.07357177       0.004
   0.06577243  0.03905866  0.07357177       0.004
   0.06577243  0.04556844  0.07357177       0.004
   0.06577243  0.05207822  0.07357177       0.004
   0.06577243  0.05858800  0.07357177       0.004
   0.06577243  0.06509777  0.07357177       0.004
   0.06577243  0.07160755  0.07357177       0.004
   0.06577243  0.07811733  0.07357177       0.004
   0.06577243  0.08462711  0.07357177       0.004
   0.06577243  0.09113688  0.07357177       0.004
   0.06577243  0.09764666  0.07357177       0.004
   0.06577243  0.10415644  0.07357177       0.004
   0.06577243  0.11066621  0.07357177       0.004
   0.06577243  0.11717599  0.07357177       0.004
   0.06577243  0.12368577  0.07357177       0.004
   0.06577243  0.12368577  0.07357177       0.004
   0.06231072  0.12368577  0.07357177       0.004
   0.05884902  0.12368577  0.07357177       0.004
   0.05538731  0.12368577  0.07357177       0.004
   0.05192560  0.12368577  0.07357177       0.004
   0.04846390  0.12368577  0.07357177       0.004
   0.04500219  0.12368577  0.07357177       0.004
   0.04154048  0.12368577  0.07357177       0.004
   0.03807878  0.12368577  0.07357177       0.004
   0.03461707  0.12368577  0.07357177       0.004
   0.03115536  0.12368577  0.07357177       0.004
   0.02769365  0.12368577  0.07357177       0.004
   0.02423195  0.12368577  0.07357177       0.004
   0.02077024  0.12368577  0.07357177       0.004
   0.01730853  0.12368577  0.07357177       0.004
   0.01384683  0.12368577  0.07357177       0.004
   0.01038512  0.12368577  0.07357177       0.004
   0.00692341  0.12368577  0.07357177       0.004
   0.00346171  0.12368577  0.07357177       0.004
   0.00000000  0.12368577  0.07357177       0.004
   0.00000000  0.12368577  0.07357177       0.004
   0.00000000  0.11717599  0.07357177       0.004
   0.00000000  0.11066621  0.07357177       0.004
   0.00000000  0.10415644  0.07357177       0.004
   0.00000000  0.09764666  0.07357177       0.004
   0.00000000  0.09113688  0.07357177       0.004
   0.00000000  0.08462711  0.07357177       0.004
   0.00000000  0.07811733  0.07357177       0.004
   0.00000000  0.07160755  0.07357177       0.004
   0.00000000  0.06509777  0.07357177       0.004
   0.00000000  0.05858800  0.07357177       0.004
   0.00000000  0.05207822  0.07357177       0.004
   0.00000000  0.04556844  0.07357177       0.004
   0.00000000  0.03905866  0.07357177       0.004
   0.00000000  0.03254889  0.07357177       0.004
   0.00000000  0.02603911  0.07357177       0.004
   0.00000000  0.01952933  0.07357177       0.004
   0.00000000  0.01301955  0.07357177       0.004
   0.00000000  0.00650978  0.07357177       0.004
   0.00000000  0.00000000  0.07357177       0.004
   0.06577243  0.00000000  0.00000000       0.004
   0.06577243  0.00000000  0.00387220       0.004
   0.06577243  0.00000000  0.00774440       0.004
   0.06577243  0.00000000  0.01161660       0.004
   0.06577243  0.00000000  0.01548879       0.004
   0.06577243  0.00000000  0.01936099       0.004
   0.06577243  0.00000000  0.02323319       0.004
   0.06577243  0.00000000  0.02710539       0.004
   0.06577243  0.00000000  0.03097759       0.004
   0.06577243  0.00000000  0.03484979       0.004
   0.06577243  0.00000000  0.03872199       0.004
   0.06577243  0.00000000  0.04259419       0.004
   0.06577243  0.00000000  0.04646638       0.004
   0.06577243  0.00000000  0.05033858       0.004
   0.06577243  0.00000000  0.05421078       0.004
   0.06577243  0.00000000  0.05808298       0.004
   0.06577243  0.00000000  0.06195518       0.004
   0.06577243  0.00000000  0.06582738       0.004
   0.06577243  0.00000000  0.06969958       0.004
   0.06577243  0.00000000  0.07357177       0.004
   0.00000000  0.12368577  0.00000000       0.004
   0.00000000  0.12368577  0.00387220       0.004
   0.00000000  0.12368577  0.00774440       0.004
   0.00000000  0.12368577  0.01161660       0.004
   0.00000000  0.12368577  0.01548879       0.004
   0.00000000  0.12368577  0.01936099       0.004
   0.00000000  0.12368577  0.02323319       0.004
   0.00000000  0.12368577  0.02710539       0.004
   0.00000000  0.12368577  0.03097759       0.004
   0.00000000  0.12368577  0.03484979       0.004
   0.00000000  0.12368577  0.03872199       0.004
   0.00000000  0.12368577  0.04259419       0.004
   0.00000000  0.12368577  0.04646638       0.004
   0.00000000  0.12368577  0.05033858       0.004
   0.00000000  0.12368577  0.05421078       0.004
   0.00000000  0.12368577  0.05808298       0.004
   0.00000000  0.12368577  0.06195518       0.004
   0.00000000  0.12368577  0.06582738       0.004
   0.00000000  0.12368577  0.06969958       0.004
   0.00000000  0.12368577  0.07357177       0.004
   0.06577243  0.12368577  0.00000000       0.004
   0.06577243  0.12368577  0.00387220       0.004
   0.06577243  0.12368577  0.00774440       0.004
   0.06577243  0.12368577  0.01161660       0.004
   0.06577243  0.12368577  0.01548879       0.004
   0.06577243  0.12368577  0.01936099       0.004
   0.06577243  0.12368577  0.02323319       0.004
   0.06577243  0.12368577  0.02710539       0.004
   0.06577243  0.12368577  0.03097759       0.004
   0.06577243  0.12368577  0.03484979       0.004
   0.06577243  0.12368577  0.03872199       0.004
   0.06577243  0.12368577  0.04259419       0.004
   0.06577243  0.12368577  0.04646638       0.004
   0.06577243  0.12368577  0.05033858       0.004
   0.06577243  0.12368577  0.05421078       0.004
   0.06577243  0.12368577  0.05808298       0.004
   0.06577243  0.12368577  0.06195518       0.004
   0.06577243  0.12368577  0.06582738       0.004
   0.06577243  0.12368577  0.06969958       0.004
   0.06577243  0.12368577  0.07357177       0.004

 k-points in reciprocal lattice and weights: K-Path Generated by VASPKIT.            
   0.00000000  0.00000000  0.00000000       0.004
   0.02631579  0.00000000  0.00000000       0.004
   0.05263158  0.00000000  0.00000000       0.004
   0.07894737  0.00000000  0.00000000       0.004
   0.10526316  0.00000000  0.00000000       0.004
   0.13157895  0.00000000  0.00000000       0.004
   0.15789474  0.00000000  0.00000000       0.004
   0.18421053  0.00000000  0.00000000       0.004
   0.21052632  0.00000000  0.00000000       0.004
   0.23684211  0.00000000  0.00000000       0.004
   0.26315789  0.00000000  0.00000000       0.004
   0.28947368  0.00000000  0.00000000       0.004
   0.31578947  0.00000000  0.00000000       0.004
   0.34210526  0.00000000  0.00000000       0.004
   0.36842105  0.00000000  0.00000000       0.004
   0.39473684  0.00000000  0.00000000       0.004
   0.42105263  0.00000000  0.00000000       0.004
   0.44736842  0.00000000  0.00000000       0.004
   0.47368421  0.00000000  0.00000000       0.004
   0.50000000  0.00000000  0.00000000       0.004
   0.50000000  0.00000000  0.00000000       0.004
   0.50000000  0.02631579  0.00000000       0.004
   0.50000000  0.05263158  0.00000000       0.004
   0.50000000  0.07894737  0.00000000       0.004
   0.50000000  0.10526316  0.00000000       0.004
   0.50000000  0.13157895  0.00000000       0.004
   0.50000000  0.15789474  0.00000000       0.004
   0.50000000  0.18421053  0.00000000       0.004
   0.50000000  0.21052632  0.00000000       0.004
   0.50000000  0.23684211  0.00000000       0.004
   0.50000000  0.26315789  0.00000000       0.004
   0.50000000  0.28947368  0.00000000       0.004
   0.50000000  0.31578947  0.00000000       0.004
   0.50000000  0.34210526  0.00000000       0.004
   0.50000000  0.36842105  0.00000000       0.004
   0.50000000  0.39473684  0.00000000       0.004
   0.50000000  0.42105263  0.00000000       0.004
   0.50000000  0.44736842  0.00000000       0.004
   0.50000000  0.47368421  0.00000000       0.004
   0.50000000  0.50000000  0.00000000       0.004
   0.50000000  0.50000000  0.00000000       0.004
   0.47368421  0.50000000  0.00000000       0.004
   0.44736842  0.50000000  0.00000000       0.004
   0.42105263  0.50000000  0.00000000       0.004
   0.39473684  0.50000000  0.00000000       0.004
   0.36842105  0.50000000  0.00000000       0.004
   0.34210526  0.50000000  0.00000000       0.004
   0.31578947  0.50000000  0.00000000       0.004
   0.28947368  0.50000000  0.00000000       0.004
   0.26315789  0.50000000  0.00000000       0.004
   0.23684211  0.50000000  0.00000000       0.004
   0.21052632  0.50000000  0.00000000       0.004
   0.18421053  0.50000000  0.00000000       0.004
   0.15789474  0.50000000  0.00000000       0.004
   0.13157895  0.50000000  0.00000000       0.004
   0.10526316  0.50000000  0.00000000       0.004
   0.07894737  0.50000000  0.00000000       0.004
   0.05263158  0.50000000  0.00000000       0.004
   0.02631579  0.50000000  0.00000000       0.004
   0.00000000  0.50000000  0.00000000       0.004
   0.00000000  0.50000000  0.00000000       0.004
   0.00000000  0.47368421  0.00000000       0.004
   0.00000000  0.44736842  0.00000000       0.004
   0.00000000  0.42105263  0.00000000       0.004
   0.00000000  0.39473684  0.00000000       0.004
   0.00000000  0.36842105  0.00000000       0.004
   0.00000000  0.34210526  0.00000000       0.004
   0.00000000  0.31578947  0.00000000       0.004
   0.00000000  0.28947368  0.00000000       0.004
   0.00000000  0.26315789  0.00000000       0.004
   0.00000000  0.23684211  0.00000000       0.004
   0.00000000  0.21052632  0.00000000       0.004
   0.00000000  0.18421053  0.00000000       0.004
   0.00000000  0.15789474  0.00000000       0.004
   0.00000000  0.13157895  0.00000000       0.004
   0.00000000  0.10526316  0.00000000       0.004
   0.00000000  0.07894737  0.00000000       0.004
   0.00000000  0.05263158  0.00000000       0.004
   0.00000000  0.02631579  0.00000000       0.004
   0.00000000  0.00000000  0.00000000       0.004
   0.00000000  0.00000000  0.00000000       0.004
   0.00000000  0.00000000  0.02631579       0.004
   0.00000000  0.00000000  0.05263158       0.004
   0.00000000  0.00000000  0.07894737       0.004
   0.00000000  0.00000000  0.10526316       0.004
   0.00000000  0.00000000  0.13157895       0.004
   0.00000000  0.00000000  0.15789474       0.004
   0.00000000  0.00000000  0.18421053       0.004
   0.00000000  0.00000000  0.21052632       0.004
   0.00000000  0.00000000  0.23684211       0.004
   0.00000000  0.00000000  0.26315789       0.004
   0.00000000  0.00000000  0.28947368       0.004
   0.00000000  0.00000000  0.31578947       0.004
   0.00000000  0.00000000  0.34210526       0.004
   0.00000000  0.00000000  0.36842105       0.004
   0.00000000  0.00000000  0.39473684       0.004
   0.00000000  0.00000000  0.42105263       0.004
   0.00000000  0.00000000  0.44736842       0.004
   0.00000000  0.00000000  0.47368421       0.004
   0.00000000  0.00000000  0.50000000       0.004
   0.00000000  0.00000000  0.50000000       0.004
   0.02631579  0.00000000  0.50000000       0.004
   0.05263158  0.00000000  0.50000000       0.004
   0.07894737  0.00000000  0.50000000       0.004
   0.10526316  0.00000000  0.50000000       0.004
   0.13157895  0.00000000  0.50000000       0.004
   0.15789474  0.00000000  0.50000000       0.004
   0.18421053  0.00000000  0.50000000       0.004
   0.21052632  0.00000000  0.50000000       0.004
   0.23684211  0.00000000  0.50000000       0.004
   0.26315789  0.00000000  0.50000000       0.004
   0.28947368  0.00000000  0.50000000       0.004
   0.31578947  0.00000000  0.50000000       0.004
   0.34210526  0.00000000  0.50000000       0.004
   0.36842105  0.00000000  0.50000000       0.004
   0.39473684  0.00000000  0.50000000       0.004
   0.42105263  0.00000000  0.50000000       0.004
   0.44736842  0.00000000  0.50000000       0.004
   0.47368421  0.00000000  0.50000000       0.004
   0.50000000  0.00000000  0.50000000       0.004
   0.50000000  0.00000000  0.50000000       0.004
   0.50000000  0.02631579  0.50000000       0.004
   0.50000000  0.05263158  0.50000000       0.004
   0.50000000  0.07894737  0.50000000       0.004
   0.50000000  0.10526316  0.50000000       0.004
   0.50000000  0.13157895  0.50000000       0.004
   0.50000000  0.15789474  0.50000000       0.004
   0.50000000  0.18421053  0.50000000       0.004
   0.50000000  0.21052632  0.50000000       0.004
   0.50000000  0.23684211  0.50000000       0.004
   0.50000000  0.26315789  0.50000000       0.004
   0.50000000  0.28947368  0.50000000       0.004
   0.50000000  0.31578947  0.50000000       0.004
   0.50000000  0.34210526  0.50000000       0.004
   0.50000000  0.36842105  0.50000000       0.004
   0.50000000  0.39473684  0.50000000       0.004
   0.50000000  0.42105263  0.50000000       0.004
   0.50000000  0.44736842  0.50000000       0.004
   0.50000000  0.47368421  0.50000000       0.004
   0.50000000  0.50000000  0.50000000       0.004
   0.50000000  0.50000000  0.50000000       0.004
   0.47368421  0.50000000  0.50000000       0.004
   0.44736842  0.50000000  0.50000000       0.004
   0.42105263  0.50000000  0.50000000       0.004
   0.39473684  0.50000000  0.50000000       0.004
   0.36842105  0.50000000  0.50000000       0.004
   0.34210526  0.50000000  0.50000000       0.004
   0.31578947  0.50000000  0.50000000       0.004
   0.28947368  0.50000000  0.50000000       0.004
   0.26315789  0.50000000  0.50000000       0.004
   0.23684211  0.50000000  0.50000000       0.004
   0.21052632  0.50000000  0.50000000       0.004
   0.18421053  0.50000000  0.50000000       0.004
   0.15789474  0.50000000  0.50000000       0.004
   0.13157895  0.50000000  0.50000000       0.004
   0.10526316  0.50000000  0.50000000       0.004
   0.07894737  0.50000000  0.50000000       0.004
   0.05263158  0.50000000  0.50000000       0.004
   0.02631579  0.50000000  0.50000000       0.004
   0.00000000  0.50000000  0.50000000       0.004
   0.00000000  0.50000000  0.50000000       0.004
   0.00000000  0.47368421  0.50000000       0.004
   0.00000000  0.44736842  0.50000000       0.004
   0.00000000  0.42105263  0.50000000       0.004
   0.00000000  0.39473684  0.50000000       0.004
   0.00000000  0.36842105  0.50000000       0.004
   0.00000000  0.34210526  0.50000000       0.004
   0.00000000  0.31578947  0.50000000       0.004
   0.00000000  0.28947368  0.50000000       0.004
   0.00000000  0.26315789  0.50000000       0.004
   0.00000000  0.23684211  0.50000000       0.004
   0.00000000  0.21052632  0.50000000       0.004
   0.00000000  0.18421053  0.50000000       0.004
   0.00000000  0.15789474  0.50000000       0.004
   0.00000000  0.13157895  0.50000000       0.004
   0.00000000  0.10526316  0.50000000       0.004
   0.00000000  0.07894737  0.50000000       0.004
   0.00000000  0.05263158  0.50000000       0.004
   0.00000000  0.02631579  0.50000000       0.004
   0.00000000  0.00000000  0.50000000       0.004
   0.50000000  0.00000000  0.00000000       0.004
   0.50000000  0.00000000  0.02631579       0.004
   0.50000000  0.00000000  0.05263158       0.004
   0.50000000  0.00000000  0.07894737       0.004
   0.50000000  0.00000000  0.10526316       0.004
   0.50000000  0.00000000  0.13157895       0.004
   0.50000000  0.00000000  0.15789474       0.004
   0.50000000  0.00000000  0.18421053       0.004
   0.50000000  0.00000000  0.21052632       0.004
   0.50000000  0.00000000  0.23684211       0.004
   0.50000000  0.00000000  0.26315789       0.004
   0.50000000  0.00000000  0.28947368       0.004
   0.50000000  0.00000000  0.31578947       0.004
   0.50000000  0.00000000  0.34210526       0.004
   0.50000000  0.00000000  0.36842105       0.004
   0.50000000  0.00000000  0.39473684       0.004
   0.50000000  0.00000000  0.42105263       0.004
   0.50000000  0.00000000  0.44736842       0.004
   0.50000000  0.00000000  0.47368421       0.004
   0.50000000  0.00000000  0.50000000       0.004
   0.00000000  0.50000000  0.00000000       0.004
   0.00000000  0.50000000  0.02631579       0.004
   0.00000000  0.50000000  0.05263158       0.004
   0.00000000  0.50000000  0.07894737       0.004
   0.00000000  0.50000000  0.10526316       0.004
   0.00000000  0.50000000  0.13157895       0.004
   0.00000000  0.50000000  0.15789474       0.004
   0.00000000  0.50000000  0.18421053       0.004
   0.00000000  0.50000000  0.21052632       0.004
   0.00000000  0.50000000  0.23684211       0.004
   0.00000000  0.50000000  0.26315789       0.004
   0.00000000  0.50000000  0.28947368       0.004
   0.00000000  0.50000000  0.31578947       0.004
   0.00000000  0.50000000  0.34210526       0.004
   0.00000000  0.50000000  0.36842105       0.004
   0.00000000  0.50000000  0.39473684       0.004
   0.00000000  0.50000000  0.42105263       0.004
   0.00000000  0.50000000  0.44736842       0.004
   0.00000000  0.50000000  0.47368421       0.004
   0.00000000  0.50000000  0.50000000       0.004
   0.50000000  0.50000000  0.00000000       0.004
   0.50000000  0.50000000  0.02631579       0.004
[...]
     22       5.6921      2.00000
     23       6.1129      2.00000
     24       6.1129      2.00000
     25       6.2585      2.00000
     26       6.2585      2.00000
     27       6.7024      2.00000
     28       6.7024      2.00000
     29       7.1232      2.00000
     30       7.1232      2.00000
     31       7.1672      2.00000
     32       7.1672      2.00000
     33       8.5241      0.62075
     34       8.5241      0.62075
     35       8.5763      0.26903
     36       8.5763      0.26903
     37       8.7234     -0.07091
     38       8.7234     -0.07091
     39       8.7967     -0.04670
     40       8.7967     -0.04670

 k-point   236 :       0.5000    0.5000    0.3947
  band No.  band energies     occupation 
      1     -26.0872      2.00000
      2     -26.0872      2.00000
      3      -9.2175      2.00000
      4      -9.2175      2.00000
      5      -9.0505      2.00000
      6      -9.0505      2.00000
      7      -8.9228      2.00000
      8      -8.9228      2.00000
      9       0.7404      2.00000
     10       0.7404      2.00000
     11       1.8902      2.00000
     12       1.8902      2.00000
     13       2.7578      2.00000
     14       2.7578      2.00000
     15       4.7753      2.00000
     16       4.7753      2.00000
     17       4.8473      2.00000
     18       4.8473      2.00000
     19       5.4087      2.00000
     20       5.4087      2.00000
     21       5.6990      2.00000
     22       5.6990      2.00000
     23       6.1164      2.00000
     24       6.1164      2.00000
     25       6.2277      2.00000
     26       6.2277      2.00000
     27       6.7021      2.00000
     28       6.7021      2.00000
     29       7.1351      2.00000
     30       7.1351      2.00000
     31       7.1368      2.00000
     32       7.1368      2.00000
     33       8.5437      0.47530
     34       8.5437      0.47530
     35       8.5701      0.30452
     36       8.5701      0.30452
     37       8.7233     -0.07091
     38       8.7233     -0.07091
     39       8.7948     -0.04760
     40       8.7948     -0.04760

 k-point   237 :       0.5000    0.5000    0.4211
  band No.  band energies     occupation 
      1     -26.0872      2.00000
      2     -26.0872      2.00000
      3      -9.2175      2.00000
      4      -9.2175      2.00000
      5      -9.0509      2.00000
      6      -9.0509      2.00000
      7      -8.9227      2.00000
      8      -8.9227      2.00000
      9       0.7381      2.00000
     10       0.7381      2.00000
     11       1.9028      2.00000
     12       1.9028      2.00000
     13       2.7506      2.00000
     14       2.7506      2.00000
     15       4.7553      2.00000
     16       4.7553      2.00000
     17       4.8947      2.00000
     18       4.8947      2.00000
     19       5.3980      2.00000
     20       5.3980      2.00000
     21       5.7045      2.00000
     22       5.7045      2.00000
     23       6.1192      2.00000
     24       6.1192      2.00000
     25       6.1990      2.00000
     26       6.1990      2.00000
     27       6.7019      2.00000
     28       6.7019      2.00000
     29       7.1096      2.00000
     30       7.1096      2.00000
     31       7.1477      2.00000
     32       7.1477      2.00000
     33       8.5595      0.36930
     34       8.5595      0.36930
     35       8.5643      0.33896
     36       8.5643      0.33896
     37       8.7229     -0.07092
     38       8.7229     -0.07092
     39       8.7937     -0.04808
     40       8.7937     -0.04808

 k-point   238 :       0.5000    0.5000    0.4474
  band No.  band energies     occupation 
      1     -26.0872      2.00000
      2     -26.0872      2.00000
      3      -9.2174      2.00000
      4      -9.2174      2.00000
      5      -9.0512      2.00000
      6      -9.0512      2.00000
      7      -8.9227      2.00000
      8      -8.9227      2.00000
      9       0.7363      2.00000
     10       0.7363      2.00000
     11       1.9121      2.00000
     12       1.9121      2.00000
     13       2.7455      2.00000
     14       2.7455      2.00000
     15       4.7406      2.00000
     16       4.7406      2.00000
     17       4.9299      2.00000
     18       4.9299      2.00000
     19       5.3920      2.00000
     20       5.3920      2.00000
     21       5.7084      2.00000
     22       5.7084      2.00000
     23       6.1211      2.00000
     24       6.1211      2.00000
     25       6.1754      2.00000
     26       6.1754      2.00000
     27       6.7017      2.00000
     28       6.7017      2.00000
     29       7.0910      2.00000
     30       7.0910      2.00000
     31       7.1557      2.00000
     32       7.1557      2.00000
     33       8.5597      0.36794
     34       8.5597      0.36794
     35       8.5710      0.29901
     36       8.5710      0.29901
     37       8.7224     -0.07091
     38       8.7224     -0.07091
     39       8.7933     -0.04830
     40       8.7933     -0.04830

 k-point   239 :       0.5000    0.5000    0.4737
  band No.  band energies     occupation 
      1     -26.0872      2.00000
      2     -26.0872      2.00000
      3      -9.2174      2.00000
      4      -9.2174      2.00000
      5      -9.0513      2.00000
      6      -9.0513      2.00000
      7      -8.9227      2.00000
      8      -8.9227      2.00000
      9       0.7353      2.00000
     10       0.7353      2.00000
     11       1.9178      2.00000
     12       1.9178      2.00000
     13       2.7425      2.00000
     14       2.7425      2.00000
     15       4.7317      2.00000
     16       4.7317      2.00000
     17       4.9514      2.00000
     18       4.9514      2.00000
     19       5.3894      2.00000
     20       5.3894      2.00000
     21       5.7107      2.00000
     22       5.7107      2.00000
     23       6.1222      2.00000
     24       6.1222      2.00000
     25       6.1598      2.00000
     26       6.1598      2.00000
     27       6.7016      2.00000
     28       6.7016      2.00000
     29       7.0797      2.00000
     30       7.0797      2.00000
     31       7.1606      2.00000
     32       7.1606      2.00000
     33       8.5567      0.38730
     34       8.5567      0.38730
     35       8.5780      0.25942
     36       8.5780      0.25942
     37       8.7220     -0.07091
     38       8.7220     -0.07091
     39       8.7931     -0.04838
     40       8.7931     -0.04838

 k-point   240 :       0.5000    0.5000    0.5000
  band No.  band energies     occupation 
      1     -26.0872      2.00000
      2     -26.0872      2.00000
      3      -9.2174      2.00000
      4      -9.2174      2.00000
      5      -9.0514      2.00000
      6      -9.0514      2.00000
      7      -8.9227      2.00000
      8      -8.9227      2.00000
      9       0.7349      2.00000
     10       0.7349      2.00000
     11       1.9198      2.00000
     12       1.9198      2.00000
     13       2.7415      2.00000
     14       2.7415      2.00000
     15       4.7287      2.00000
     16       4.7287      2.00000
     17       4.9587      2.00000
     18       4.9587      2.00000
     19       5.3888      2.00000
     20       5.3888      2.00000
     21       5.7115      2.00000
     22       5.7115      2.00000
     23       6.1226      2.00000
     24       6.1226      2.00000
     25       6.1543      2.00000
     26       6.1543      2.00000
     27       6.7015      2.00000
     28       6.7015      2.00000
     29       7.0760      2.00000
     30       7.0760      2.00000
     31       7.1622      2.00000
     32       7.1622      2.00000
     33       8.5557      0.39410
     34       8.5557      0.39410
     35       8.5803      0.24668
     36       8.5803      0.24668
     37       8.7218     -0.07091
     38       8.7218     -0.07091
     39       8.7930     -0.04839
     40       8.7930     -0.04839


--------------------------------------------------------------------------------------------------------


 soft charge-density along one line, spin component           1
         0         1         2         3         4         5         6         7         8         9
 total charge-density along one line

 pseudopotential strength for first ion, spin component:           1
  8.425  14.357   0.000  -0.000  -0.002   0.000  -0.002  -0.005
 14.357  24.467   0.000  -0.001  -0.003   0.000  -0.003  -0.009
  0.000   0.000   1.991   0.000   0.000   5.735   0.000   0.000
 -0.000  -0.001   0.000   1.992   0.000   0.000   5.737   0.000
 -0.002  -0.003   0.000   0.000   1.992   0.000   0.000   5.736
  0.000   0.000   5.735   0.000   0.000  16.435   0.000   0.000
 -0.002  -0.003   0.000   5.737   0.000   0.000  16.441   0.000
 -0.005  -0.009   0.000   0.000   5.736   0.000   0.000  16.438
 total augmentation occupancy for first ion, spin component:           1
  3.586  -0.896   0.000  -0.060   0.159   0.000   0.012  -0.023
 -0.896   0.251   0.000   0.070  -0.078   0.000  -0.007   0.008
  0.000   0.000   1.306   0.000   0.000  -0.076   0.000   0.000
 -0.060   0.070   0.000   1.123  -0.073   0.000  -0.071   0.006
  0.159  -0.078   0.000  -0.073   1.217   0.000   0.007  -0.076
  0.000   0.000  -0.076   0.000   0.000   0.005   0.000   0.000
  0.012  -0.007   0.000  -0.071   0.007   0.000   0.005  -0.001
 -0.023   0.008   0.000   0.006  -0.076   0.000  -0.001   0.005


------------------------ aborting loop because EDIFF is reached ----------------------------------------


 -----------------------------------------------------------------------------
|                                                                             |
|               ----> ADVICE to this user running VASP <----                  |
|                                                                             |
|     Your highest band is occupied at some k-points! Unless you are          |
|     performing a calculation for an insulator or semiconductor, without     |
|     unoccupied bands, you have included TOO FEW BANDS!! Please increase     |
|     the parameter NBANDS in file INCAR to ensure that the highest band      |
|     is unoccupied at all k-points. It is always recommended to include      |
|     a few unoccupied bands to accelerate the convergence of                 |
|     molecular-dynamics runs (even for insulators or semiconductors),        |
|     since the presence of unoccupied bands improves wavefunction            |
|     prediction and helps to suppress 'band-crossings'.                      |
|                                                                             |
 -----------------------------------------------------------------------------




 total charge

# of ion       s       p       d       f       tot
--------------------------------------------------
    1        0.413   0.379   0.000   0.000   0.792
    2        0.413   0.379   0.000   0.000   0.792
    3        0.413   0.379   0.000   0.000   0.792
    4        0.413   0.379   0.000   0.000   0.792
    5        0.417   0.391   0.000   0.000   0.808
    6        0.417   0.391   0.000   0.000   0.808
    7        0.423   0.400   0.000   0.000   0.824
    8        0.423   0.400   0.000   0.000   0.824
    9        2.039   5.679   0.983   1.004   9.705
   10        2.039   5.679   0.983   1.004   9.705
   11        0.462   0.516   7.463   0.000   8.441
   12        0.462   0.516   7.463   0.000   8.441
--------------------------------------------------
tot          8.335  15.489  16.892   2.009  42.725

    CHARGE:  cpu time      0.6272: real time      0.6272
    FORLOC:  cpu time      0.0022: real time      0.0022
    FORNL :  cpu time      3.0338: real time      3.0338
    STRESS:  cpu time      8.1398: real time      8.1399
    FORCOR:  cpu time      0.0214: real time      0.0214
    FORHAR:  cpu time      0.0063: real time      0.0063
    MIXING:  cpu time      0.0010: real time      0.0010
    OFIELD:  cpu time      0.0000: real time      0.0000

  FORCE on cell =-STRESS in cart. coord.  units (eV):
  Direction    XX          YY          ZZ          XY          YZ          ZX
  --------------------------------------------------------------------------------------
  Alpha Z   137.76793   137.76793   137.76793
  Ewald   -1274.29211 -1233.89559  -998.98676    -0.00000    -0.00000     0.00000
  Hartree   250.91007   264.72519   438.79972    -0.00000    -0.00000    -0.00000
  E(xc)    -270.91477  -270.31585  -270.15296     0.00000     0.00000    -0.00000
  Local     -65.75559  -122.87260  -534.62917    -0.00000    -0.00000    -0.00000
  n-local   271.49740   266.98731   263.33606    -0.00010     0.00001     0.00001
  augment   260.60714   257.84163   261.77473    -0.00000    -0.00000    -0.00000
  Kinetic   691.56583   698.20857   702.28394     0.00018    -0.00008    -0.00004
  Fock        0.00000     0.00000     0.00000     0.00000     0.00000     0.00000
  -------------------------------------------------------------------------------------
  Total       1.38591    -1.55341     0.19351     0.00000     0.00000    -0.00000
  in kB      10.63187   -11.91683     1.48447     0.00000     0.00000    -0.00000
  external pressure =        0.07 kB  Pullay stress =        0.00 kB


 VOLUME and BASIS-vectors are now :
 -----------------------------------------------------------------------------
  energy-cutoff  :      500.00
  volume of cell :      208.85
      direct lattice vectors                 reciprocal lattice vectors
     7.601969351  0.000000000  0.000000000     0.131544861  0.000000000  0.000000000
     0.000000000  4.042502232  0.000000000     0.000000000  0.247371539  0.000000000
     0.000000000  0.000000000  6.796084561     0.000000000  0.000000000  0.147143549

  length of vectors
     7.601969351  4.042502232  6.796084561     0.131544861  0.247371539  0.147143549


 FORCES acting on ions
    electron-ion (+dipol)            ewald-force                    non-local-force                 convergence-correction
 -----------------------------------------------------------------------------------------------
   0.289E+02 0.196E-12 -.745E-01   -.276E+02 -.203E-14 0.663E+00   -.119E+01 0.247E-22 -.557E+00   -.969E-05 -.229E-14 0.139E-04
   -.289E+02 -.537E-12 0.745E-01   0.276E+02 0.302E-14 -.663E+00   0.119E+01 0.403E-23 0.557E+00   0.969E-05 -.158E-14 -.139E-04
   -.289E+02 -.287E-12 -.745E-01   0.276E+02 -.180E-14 0.663E+00   0.119E+01 0.792E-23 -.557E+00   0.969E-05 -.266E-14 0.139E-04
   0.289E+02 -.368E-13 0.745E-01   -.276E+02 0.327E-14 -.663E+00   -.119E+01 0.141E-22 0.557E+00   -.969E-05 -.116E-14 -.139E-04
   -.180E-13 -.617E-12 -.184E+02   -.112E-13 -.197E-14 0.189E+02   -.291E-23 0.365E-22 -.555E+00   0.298E-14 -.106E-14 0.152E-04
   -.172E-13 0.269E-11 0.184E+02   -.448E-14 0.990E-15 -.189E+02   -.143E-22 -.396E-22 0.555E+00   -.286E-14 -.211E-14 -.152E-04
   0.496E-13 0.327E-13 0.302E-13   0.347E-13 -.210E-17 0.274E-13   0.141E-24 -.845E-23 0.201E-24   -.236E-14 0.132E-14 0.326E-14
   -.634E-12 0.620E-13 -.402E-12   0.383E-13 -.116E-15 -.320E-13   -.586E-24 0.114E-22 -.254E-24   0.920E-15 0.123E-14 -.465E-15
   0.380E-12 -.392E-12 0.716E+02   0.103E-14 -.139E-14 -.721E+02   0.157E-22 0.132E-21 0.385E+00   -.507E-14 0.255E-13 0.236E-05
   0.488E-12 0.389E-12 -.716E+02   0.107E-13 -.389E-14 0.721E+02   -.838E-23 0.138E-21 -.385E+00   -.120E-13 0.155E-13 -.236E-05
   0.234E-12 -.364E-12 -.454E+02   -.341E-13 -.815E-14 0.426E+02   0.167E-22 -.382E-22 0.298E+01   0.231E-13 0.309E-13 -.334E-04
   0.125E-11 0.367E-12 0.454E+02   -.242E-13 0.328E-14 -.426E+02   0.158E-23 0.293E-22 -.298E+01   -.148E-13 0.412E-13 0.334E-04
 -----------------------------------------------------------------------------------------------
   0.220E-11 0.151E-11 -.162E-11   -.176E-13 -.879E-14 -.355E-13   0.794E-23 0.311E-21 0.000E+00   -.764E-14 0.105E-12 -.126E-13


 POSITION                                       TOTAL-FORCE (eV/Angst)
 -----------------------------------------------------------------------------------
      4.32349      2.02125      2.06116         0.079326     -0.000000      0.031226
      3.27848      2.02125      4.73493        -0.079326      0.000000     -0.031226
      7.07946      2.02125      2.06116        -0.079326     -0.000000      0.031226
      0.52251      2.02125      4.73493         0.079326     -0.000000     -0.031226
      1.90049      2.02125      0.30634         0.000000      0.000000     -0.061610
      5.70148      2.02125      6.48974         0.000000     -0.000000      0.061610
      0.00000      0.00000      0.00000         0.000000     -0.000000      0.000000
      3.80098      0.00000      0.00000         0.000000     -0.000000     -0.000000
      1.90049      0.00000      2.60850         0.000000      0.000000     -0.057326
      5.70148      0.00000      4.18758        -0.000000     -0.000000      0.057326
      1.90049      0.00000      5.46154        -0.000000     -0.000000      0.193393
      5.70148      0.00000      1.33454        -0.000000     -0.000000     -0.193393
 -----------------------------------------------------------------------------------
    total drift:                                0.000000      0.000000     -0.000000


--------------------------------------------------------------------------------------------------------



  FREE ENERGIE OF THE ION-ELECTRON SYSTEM (eV)
  ---------------------------------------------------
  free  energy   TOTEN  =       -61.39686775 eV

  energy  without entropy=      -61.41754782  energy(sigma->0) =      -61.40376110



--------------------------------------------------------------------------------------------------------


    POTLOK:  cpu time      0.0413: real time      0.0413


--------------------------------------------------------------------------------------------------------


 writing wavefunctions
     LOOP+:  cpu time    137.5037: real time    137.5842
    4ORBIT:  cpu time      0.0000: real time      0.0000



 total charge

# of ion       s       p       d       f       tot
--------------------------------------------------
    1        0.413   0.379   0.000   0.000   0.792
    2        0.413   0.379   0.000   0.000   0.792
    3        0.413   0.379   0.000   0.000   0.792
    4        0.413   0.379   0.000   0.000   0.792
    5        0.417   0.391   0.000   0.000   0.808
    6        0.417   0.391   0.000   0.000   0.808
    7        0.423   0.400   0.000   0.000   0.824
    8        0.423   0.400   0.000   0.000   0.824
    9        2.039   5.679   0.983   1.004   9.705
   10        2.039   5.679   0.983   1.004   9.705
   11        0.462   0.516   7.463   0.000   8.441
   12        0.462   0.516   7.463   0.000   8.441
--------------------------------------------------
tot          8.335  15.489  16.892   2.009  42.725


 total amount of memory used by VASP MPI-rank0   308683. kBytes
=======================================================================

   base                                    :      30000. kBytes
   nonl-proj                               :     247984. kBytes
   fftplans                                :       1421. kBytes
   grid                                    :       2405. kBytes
   one-center                              :        147. kBytes
   wavefun                                 :      26726. kBytes

  
  
 General timing and accounting informations for this job:
 ========================================================
  
                  Total CPU time used (sec):      144.383
                            User time (sec):      140.825
                          System time (sec):        3.558
                         Elapsed time (sec):      144.844
  
                   Maximum memory used (kb):      248268.
                   Average memory used (kb):          N/A
  
                          Minor page faults:        74266
                          Major page faults:            6
                 Voluntary context switches:         2501
